BEGIN_CFG
 Size
     54
 SuperCell
         9.450121      0.000000      0.000000
         0.000000      9.450121      0.000000
         0.000000      0.000000      9.450121
 AtomData:  id type       cartes_x      cartes_y      cartes_z           fx           fy           fz
             1    0       9.428962      0.044340      0.111511     0.657488    -0.288644    -1.848937
             2    0       9.305005      0.035523      3.190058     2.097227    -0.912967    -0.294151
             3    0       9.442466      0.007078      6.315336     0.655631    -0.140801    -0.182874
             4    0       9.383469      3.180079      0.026753     1.269306     0.019349    -0.374758
             5    0       9.426307      3.142014      3.152003     0.131673    -0.519221     0.008581
             6    0       0.009970      3.164335      6.414657     0.098491     0.326949    -1.873843
             7    0       9.409703      6.368597      9.387552     0.841835    -1.077416     0.560288
             8    0       9.366960      6.153626      3.079558     1.121970     2.036998     0.520751
             9    0       9.416148      6.339425      6.324739     0.453147    -0.589087    -1.533566
            10    0       3.053882      9.436286      0.117503     1.262180    -0.077548    -1.908181
            11    0       3.111226      9.442211      3.180618     0.356548    -0.126183    -0.184839
            12    0       3.113919      0.055189      6.294867     0.317995    -0.838506     0.237550
            13    0       3.116782      3.147533      0.081044     0.654875    -0.569925    -1.013761
            14    0       3.145369      3.114032      3.248413    -0.023025     0.264584    -1.201955
            15    0       3.074616      3.139652      6.333698     1.216820     0.593597    -0.176235
            16    0       3.151559      6.280371      0.014515     0.119352     0.006201    -0.667493
            17    0       3.138650      6.343602      3.135352     0.130386    -0.855220    -0.089636
            18    0       3.029794      6.366565      6.278074     1.277276    -0.811939    -0.041749
            19    0       6.281486      9.413549      0.128437     0.375681     0.731196    -2.279358
            20    0       6.290936      0.063921      3.172784    -0.087186    -0.678837     0.275611
            21    0       6.237845      0.058562      6.393593     0.835877    -0.746608    -0.655327
            22    0       6.304506      3.157654      0.134220    -0.108162    -0.329389    -1.584501
            23    0       6.216979      3.181638      3.259394     1.192558    -0.364105    -0.992062
            24    0       6.271261      3.223172      6.415215     0.485391    -1.029230    -1.144320
            25    0       6.288025      6.318048      0.121132     0.564743    -0.188544    -2.496612
            26    0       6.231363      6.349338      3.075627     0.823052    -0.245878     1.447792
            27    0       6.209193      6.245084      6.311991     0.978465     1.386364    -0.434546
            28    0       1.614100      1.479180      1.589378    -0.695945     1.064342     0.318238
            29    0       1.559799      1.586297      4.732025     0.227712    -0.473011    -0.210974
            30    0       1.621905      1.578161      7.818832    -0.292299    -0.161676     1.338390
            31    0       1.640692      4.610232      1.539481    -0.900489     0.923593     0.392664
            32    0       1.548176      4.651265      4.640661     0.265142     1.052269     1.000301
            33    0       1.671802      4.728519      7.881798    -0.923776     0.039215    -0.084014
            34    0       1.623597      7.761101      1.479889    -0.574058     0.730100     1.288280
            35    0       1.616131      7.846275      4.587117    -1.091549     0.186948     1.111962
            36    0       1.556907      7.874351      7.857502     0.732754     0.305402    -0.218679
            37    0       4.728670      1.502749      1.576516     0.048107     0.902743     0.197294
            38    0       4.771404      1.580004      4.678282    -0.519066     0.155246     1.062196
            39    0       4.728623      1.568758      7.816913     0.099763     0.099377     1.224061
            40    0       4.744859      4.696096      1.503543    -0.413313     0.101140     1.435374
            41    0       4.719995      4.743044      4.684444    -0.379464     0.145885     0.550122
            42    0       4.846891      4.721082      7.888885    -1.554327    -0.123460     0.026311
            43    0       4.810735      7.867207      1.502106    -1.290135     0.120999     1.481186
            44    0       4.764817      7.944358      4.737298    -0.586978    -0.652497    -0.372607
            45    0       4.723189      7.799260      7.855848     0.034327     1.046804     0.238484
            46    0       7.928869      1.610036      1.500386    -1.005932     0.038763     1.384735
            47    0       7.967151      1.486551      4.768021    -1.647402     1.787122    -0.426297
            48    0       8.021754      1.610660      7.796709    -2.063753    -0.289571     1.594913
            49    0       7.873293      4.764931      1.524314    -0.107750    -0.585166     0.204798
            50    0       7.907918      4.683565      4.607586    -0.791240     0.393785     1.379749
            51    0       7.938943      4.800274      7.772753    -0.579727    -0.700479     1.328624
            52    0       7.968115      7.926280      1.500386    -1.235736    -0.630538     1.246887
            53    0       7.854194      7.912426      4.751615    -0.032262    -0.983861    -0.759885
            54    0       8.019817      7.873983      7.786909    -2.422194     0.531337     1.196015
 Energy
       -581.680610200000
 Stress:  xx          yy          zz          yz          xz          xy
   40.332803   39.686612   40.379478    0.460838   -3.186849   -1.136375
END_CFG
BEGIN_CFG
 Size
     54
 SuperCell
         9.450121      0.000000      0.000000
         0.000000      9.450121      0.000000
         0.000000      0.000000      9.450121
 AtomData:  id type       cartes_x      cartes_y      cartes_z           fx           fy           fz
             1    0       9.422508      0.025837      0.005755     0.143987    -0.266483    -0.348331
             2    0       9.398429      9.448354      3.164675     0.611049    -0.010179     0.080458
             3    0       9.444130      0.056209      6.313040    -0.150224    -0.854299     0.144099
             4    0       9.441899      3.212172      0.099841    -0.084327    -0.806492    -0.921532
             5    0       9.408021      3.158126      3.184908     0.769574    -0.312923    -0.143450
             6    0       9.397871      3.166584      6.341343     0.064082     0.163344    -0.386612
             7    0       9.383214      6.305329      9.446851     1.337820    -0.049071     0.260324
             8    0       9.411064      6.323719      3.107342     0.498892    -0.326144     1.096538
             9    0       9.439405      6.297069      6.378028     0.420727    -0.143147    -1.139717
            10    0       3.064419      0.079041      0.085268     1.119100    -0.384996    -1.039330
            11    0       3.184719      0.027821      3.130419    -0.521387     0.274310     0.882353
            12    0       3.094697      9.396265      6.391164     0.877962     0.729358    -0.912420
            13    0       3.062189      3.203071      9.344970     1.216457    -0.407994     0.588320
            14    0       3.247770      3.221338      3.073709    -1.165272    -0.738855     0.716452
            15    0       3.028783      3.200709      6.205403     1.616946    -0.874290     0.943795
            16    0       3.125694      6.446513      0.041184     0.465355    -1.629262    -0.669065
            17    0       3.142968      6.418418      3.086958     0.330693    -1.478631     0.909954
            18    0       3.126771      6.322500      6.223973     0.679126    -0.358296     1.043594
            19    0       6.308419      9.354977      9.337287    -0.349401     0.931660     0.905237
            20    0       6.286239      9.429142      3.094962     0.303017     0.262014     0.571231
            21    0       6.313371      0.066104      6.269040    -0.320406    -0.824567    -0.133944
            22    0       6.262576      3.099252      0.088406     0.244841     0.189281    -2.031399
            23    0       6.301048      3.113673      3.092354     0.226725     0.579284     0.669733
            24    0       6.238526      3.186590      6.198221     0.553662    -0.441731     1.566104
            25    0       6.350784      6.254175      0.094189    -0.945669     0.225875    -1.352615
            26    0       6.277810      6.400822      3.155131     0.324863    -1.620891     0.188283
            27    0       6.325524      6.293176      6.304091    -0.433471    -0.050319     0.244314
            28    0       1.620337      1.559242      1.566754    -0.772755     0.445234     0.617498
            29    0       1.543885      1.502938      4.813353     0.277410     0.735488    -1.577838
            30    0       1.500972      1.602381      7.840321     0.781282    -0.230948     0.865331
            31    0       1.647657      4.716451      1.630089    -1.056891     0.299112    -0.556256
            32    0       1.633907      4.677281      4.732970    -0.853494     0.806862    -0.488182
            33    0       1.633624      4.730731      7.878443    -0.852056     0.374843     0.195411
            34    0       1.552560      7.872934      1.651484    -0.002623     0.371551    -0.748417
            35    0       1.666104      7.851775      4.735673    -1.286157     0.183940     0.179085
            36    0       1.617067      7.851661      7.964931    -0.870464     0.514899    -0.766302
            37    0       4.789964      1.601673      1.611331    -0.999214    -0.798128    -1.049675
            38    0       4.719750      1.556274      4.700055    -0.235416    -0.159001     0.130466
            39    0       4.747363      1.478717      7.789612    -0.702133     1.383707     1.125214
            40    0       4.709988      4.694584      1.475032     0.351911     0.725521     1.411376
            41    0       4.811066      4.662803      4.748450    -1.039902     1.128294    -0.952604
            42    0       4.755660      4.793886      7.910781    -0.185655    -0.917738    -0.650827
            43    0       4.750358      7.885984      1.588877    -0.104136     0.261452    -0.478585
            44    0       4.785201      7.830966      4.730986    -0.433154     0.644426     0.050277
            45    0       4.785881      7.856736      7.887364    -0.686296    -0.092826    -0.240814
            46    0       7.837382      1.440132      1.499838     0.753194     1.296396     0.934862
            47    0       7.860837      1.576082      4.692174     0.066866    -0.114238    -0.024737
            48    0       7.865477      1.600000      7.847607    -0.066025    -0.287247     0.249895
            49    0       7.881373      4.691853      1.596107    -0.022820    -0.050259     0.176504
            50    0       7.878056      4.711679      4.681562     0.320637     0.258648     0.450940
            51    0       7.918351      4.673227      7.948516    -0.579075     0.268389    -0.745473
            52    0       7.909024      7.814437      1.542326    -0.375316     0.622794     0.572807
            53    0       7.896587      7.883130      4.843877     0.334380    -0.148881    -1.647173
            54    0       7.871535      7.803683      7.811092     0.403181     0.701153     1.234843
 Energy
       -582.757164100000
 Stress:  xx          yy          zz          yz          xz          xy
   34.702550   34.633577   36.167956   -0.826064    0.403999   -1.521544
END_CFG
BEGIN_CFG
 Size
     54
 SuperCell
         9.450121      0.000000      0.000000
         0.000000      9.450121      0.000000
         0.000000      0.000000      9.450121
 AtomData:  id type       cartes_x      cartes_y      cartes_z           fx           fy           fz
             1    0       0.009942      0.071660      9.427904    -0.325221    -0.772000     0.235526
             2    0       9.401169      0.012654      3.210726     0.434129    -0.711872    -0.412959
             3    0       9.413823      0.014988      6.339519     0.443854     0.094868    -0.233373
             4    0       9.386550      3.164619      0.128909     0.790087    -0.257788    -1.934163
             5    0       9.370438      3.111462      3.128330     0.912139     0.097774     0.922749
             6    0       9.396681      3.140030      6.259637     0.374394    -0.096864     0.567578
             7    0       0.041146      6.396692      9.386985    -0.271571    -1.220549     0.502067
             8    0       0.024315      6.315053      3.133225    -0.027558    -0.330034     0.177268
             9    0       9.343439      6.354904      6.270080     1.393741    -1.182211     0.624266
            10    0       3.122774      0.020271      0.048763     0.260272    -0.430245    -1.153374
            11    0       3.113068      0.008864      3.106775     0.432508    -0.347423     0.863985
            12    0       3.178681      0.069128      6.242835    -0.290364    -0.434808     0.897505
            13    0       3.103873      3.131581      9.351471     0.288054     0.200088     1.295429
            14    0       3.119154      3.195190      3.169589     0.335538    -0.693631    -0.062644
            15    0       3.102210      3.256323      6.330381     0.326868    -0.917842    -0.479062
            16    0       3.177093      6.359695      9.404118    -0.023280    -1.014146     0.287035
            17    0       3.160763      6.348468      3.173568     0.039287    -0.703330    -0.467230
            18    0       3.130428      6.373568      6.234150     0.006053    -0.826689     1.022329
            19    0       6.247522      9.430966      0.058269     0.874802     0.262493    -1.032610
            20    0       6.243345      9.441673      3.162502     0.476076     0.294035    -0.118084
            21    0       6.268322      0.092035      6.278245     0.372251    -0.723916     0.664436
            22    0       6.261319      3.144868      0.098603     0.315606    -0.143311    -1.380843
            23    0       6.291541      3.265206      3.069012    -0.168514    -1.319038     1.283639
            24    0       6.248099      3.252051      6.296001     0.678050    -1.449142    -0.323795
            25    0       6.357219      6.296285      9.407662     0.094155    -0.233201     0.364968
            26    0       6.303760      6.385352      3.096134     0.496557    -0.835928     0.655985
            27    0       6.235917      6.329133      6.318039     1.264807    -0.191932    -0.558694
            28    0       1.542487      1.437581      1.632650     0.274760     1.315762    -0.712929
            29    0       1.591467      1.500774      4.701823    -0.384970     0.961514     0.419431
            30    0       1.572084      1.527329      7.842051     0.028243     0.721658     0.346131
            31    0       1.600406      4.555809      1.627037    -0.056710     1.704611    -0.373449
            32    0       1.554838      4.677517      4.796399     0.279136     0.489140    -0.804376
            33    0       1.584190      4.763315      7.942486    -0.112592    -0.519741    -0.669493
            34    0       1.594084      7.802766      1.580863     0.458951     0.265966    -0.036808
            35    0       1.582810      7.839896      4.767236     0.000895     0.385010    -0.701746
            36    0       1.605339      7.851132      7.846265     0.088141     0.690198     0.270259
            37    0       4.676411      1.507824      1.564808     0.309084     0.611777     0.400947
            38    0       4.736486      1.632395      4.732450    -0.379983    -0.234261    -0.433485
            39    0       4.781648      1.564288      7.873879    -1.113435     0.070880     0.184898
            40    0       4.744102      4.694215      1.569769    -0.468441     0.485099    -0.055156
            41    0       4.794869      4.732706      4.749621    -1.126649     0.545439    -0.657133
            42    0       4.838982      4.689547      7.887024    -1.672513     0.524255     0.181248
            43    0       4.818239      7.790529      1.503930    -1.087322     0.830034     0.849659
            44    0       4.757493      7.886882      4.774938    -0.313121     0.114580    -1.350859
            45    0       4.820280      7.808493      7.812925    -1.314196     1.147112     0.937952
            46    0       7.873321      1.523634      1.587365    -0.523238     0.343348     0.281580
            47    0       7.832912      1.470807      4.745794     0.200414     1.459797    -0.425246
            48    0       7.825107      1.628502      7.899498     0.508313    -0.810601     0.059687
            49    0       7.946692      4.726752      1.557115    -0.739763     0.444895    -0.142863
            50    0       7.906037      4.709751      4.655130    -0.446898     0.191802     0.359365
            51    0       7.876109      4.600829      7.795764     0.506348     1.841787     1.100812
            52    0       7.994387      7.885086      1.575751    -1.197997    -0.171018     0.156599
            53    0       7.927820      7.835350      4.844586    -1.055058     0.519368    -1.756738
            54    0       7.897268      7.901530      7.879747    -0.164120    -0.041771     0.363784
 Energy
       -582.926463840000
 Stress:  xx          yy          zz          yz          xz          xy
   34.018688   34.685975   35.861502   -0.500490    0.881317   -1.719420
END_CFG
BEGIN_CFG
 Size
     54
 SuperCell
         9.450121      0.000000      0.000000
         0.000000      9.450121      0.000000
         0.000000      0.000000      9.450121
 AtomData:  id type       cartes_x      cartes_y      cartes_z           fx           fy           fz
             1    0       0.014610      0.042242      9.389952    -0.855962    -0.051217     0.497783
             2    0       9.433375      0.048829      3.082715     0.081426    -0.600826     0.654688
             3    0       9.444716      9.399053      6.330116     0.110617     0.518304    -0.871171
             4    0       0.013703      3.251050      0.004810    -0.238728    -0.879530    -0.202677
             5    0       9.375947      3.143195      3.125590     0.729459     0.059334     0.242341
             6    0       9.442107      3.178851      6.249318     0.575995    -0.687175     0.397521
             7    0       9.417820      6.353411      0.045975    -0.025264    -0.413661    -0.637718
             8    0       9.343873      6.298610      3.200085     0.929868     0.577564    -0.902597
             9    0       0.015838      6.219304      6.227497    -0.187688     0.683166     1.038114
            10    0       3.064655      0.032669      0.090372     0.685152    -0.378424    -1.192162
            11    0       3.196740      9.446105      3.149064    -0.672601     0.003448     0.352959
            12    0       3.106311      9.433640      6.340899     0.112342     0.184101    -0.110240
            13    0       3.144509      3.142515      9.360808     0.063119     0.102797     1.276846
            14    0       3.153212      3.084831      3.103836    -0.386370     0.687883     0.160972
            15    0       3.173615      3.187828      6.260894    -0.139154    -0.520595     0.259245
            16    0       3.190985      6.360801      0.075214    -1.138158    -0.443515    -0.444554
            17    0       3.151918      6.298439      3.204196    -0.106733    -0.069049    -1.013099
            18    0       3.094886      6.312879      6.256812     0.494320    -0.340951     1.078516
            19    0       6.166242      9.379481      9.360165     2.083180     0.496876     0.500678
            20    0       6.307625      0.076622      3.115733     0.726940    -1.123320    -0.009592
            21    0       6.263928      0.041117      6.222461     0.921263    -1.148314     1.256622
            22    0       6.235842      3.063323      0.042818     1.206189     0.870061    -0.529684
            23    0       6.168604      3.131042      3.205679     2.065844     0.379285    -0.548827
            24    0       6.337837      3.103183      6.336835    -0.242114     0.737958    -0.039636
            25    0       6.181154      6.233045      0.026904     2.035412     0.440783    -0.421757
            26    0       6.210251      6.304535      3.197817     1.220489     0.389820    -0.090107
            27    0       6.296294      6.315317      6.362256     0.041056    -0.276134    -0.364762
            28    0       1.570317      1.601843      1.530485     0.476853     0.236808     0.614446
            29    0       1.640664      1.540370      4.743630    -0.362858     0.301774    -0.569557
            30    0       1.565441      1.621130      7.853419     0.511267    -0.322521    -0.089317
            31    0       1.533348      4.810338      1.595691     1.147855    -0.745469     0.200890
            32    0       1.591570      4.707937      4.643742     0.181229    -0.302426     1.040092
            33    0       1.642431      4.720524      7.999990    -0.398809     0.600266    -1.594852
            34    0       1.542042      7.932706      1.583481     0.400999    -0.412893     0.083406
            35    0       1.634474      7.799034      4.637524    -0.815024     1.128087     0.948656
            36    0       1.475712      7.870288      7.899904     1.651403    -0.235041    -0.473983
            37    0       4.786524      1.524834      1.580826    -0.992659     0.772977    -0.097667
            38    0       4.847175      1.548034      4.764524    -1.928434     0.633245    -0.459602
            39    0       4.798800      1.493658      7.863861    -1.465901     0.861853    -0.030802
            40    0       4.806776      4.733443      1.566395    -1.489299    -0.381126     0.674793
            41    0       4.795218      4.735569      4.763267    -1.163300    -0.113414     0.031354
            42    0       4.734511      4.680059      7.928056     0.056006     0.207461    -0.827306
            43    0       4.816226      7.916111      1.608486    -1.649559    -0.577562     0.149341
            44    0       4.700084      7.950065      4.788717     0.583891    -1.036169    -0.671546
            45    0       4.691579      7.835228      7.891418    -0.244162     0.078849    -0.194756
            46    0       7.958656      1.642138      1.458881    -1.092640    -0.674390     1.192469
            47    0       7.909534      1.552844      4.754611     0.240131     0.157169    -0.780312
            48    0       7.911991      1.570364      7.863153    -0.128842     0.040751    -0.054477
            49    0       7.937327      4.768418      1.680893    -1.367660    -0.424967    -1.453465
            50    0       7.853372      4.701813      4.701898     0.131751    -0.040073     0.522403
            51    0       7.956047      4.662898      7.839641    -0.963364     1.000527     0.610885
            52    0       7.834330      7.890728      1.441465     0.313079     0.210125     1.622820
            53    0       7.932630      7.852011      4.777962    -0.823997     0.317010    -0.887837
            54    0       7.915062      7.883896      7.847371    -0.897854    -0.479524     0.156222
 Energy
       -582.718023890000
 Stress:  xx          yy          zz          yz          xz          xy
   35.461907   33.722961   35.444157   -0.783556    0.110738   -0.437935
END_CFG
BEGIN_CFG
 Size
     54
 SuperCell
         9.450121      0.000000      0.000000
         0.000000      9.450121      0.000000
         0.000000      0.000000      9.450121
 AtomData:  id type       cartes_x      cartes_y      cartes_z           fx           fy           fz
             1    0       9.440879      0.050445      0.035655     0.491699    -0.759742    -0.609470
             2    0       9.374548      0.088869      3.179862     0.684023    -1.364481     0.057980
             3    0       9.382364      0.001937      6.304790     1.256684    -0.065158     0.035860
             4    0       9.388440      3.186137      0.038037     0.727190    -0.799782    -0.735297
             5    0       9.395433      3.183642      3.124701     0.517913    -0.600052     0.448933
             6    0       9.362112      3.244652      6.215326     1.083618    -1.300111     1.254798
             7    0       9.380852      6.323955      0.046816     1.481989    -0.666983    -0.643751
             8    0       0.019496      6.295548      3.143394    -0.073181     0.229980     0.286013
             9    0       0.045587      6.316640      6.312123    -0.415559    -0.276229     0.050290
            10    0       3.107209      0.092384      0.041392     0.636041    -0.892017    -0.735707
            11    0       3.091002      9.442939      3.168975     0.539770     0.128090    -0.351113
            12    0       3.098014      9.434065      6.252777     0.499679     0.312453     1.117932
            13    0       3.136911      3.263741      9.443241    -0.514707    -1.095748     0.165243
            14    0       3.092741      3.143791      3.135739     1.199299    -0.322424     0.302582
            15    0       3.088413      3.235495      6.340048     0.321173    -1.591930    -0.638025
            16    0       3.116631      6.451957      9.439131     0.370210    -1.783629     0.475534
            17    0       3.214978      6.352400      3.199253    -0.463540    -0.703397    -1.029448
            18    0       3.129067      6.321989      6.219767     0.588511    -0.284132     1.183741
            19    0       6.327215      0.033170      9.431684    -0.264915    -0.691367    -0.254583
            20    0       6.201207      0.087801      3.165413     1.435367    -1.335192    -0.707634
            21    0       6.279095      0.052826      6.226042     0.084934    -0.730317     1.431220
            22    0       6.149827      3.161547      9.407123     2.258250    -0.460020     0.165433
            23    0       6.291125      3.132224      3.169901     0.013450     0.215825    -0.230015
            24    0       6.195102      3.170345      6.331118     1.055663     0.095333    -0.279642
            25    0       6.253164      6.318502      9.393090     0.810090    -0.391855     0.644157
            26    0       6.259864      6.313966      3.155131     1.182822    -0.231783    -0.293032
            27    0       6.246908      6.420856      6.326847     1.104428    -1.781987    -0.479109
            28    0       1.629295      1.556085      1.605150    -0.802527     0.528154     0.093828
            29    0       1.618116      1.507417      4.748336    -0.860059     0.851258     0.069578
            30    0       1.539633      1.535484      7.977027     0.195753     0.584431    -1.221902
            31    0       1.655529      4.666215      1.634710    -0.628348     1.286255    -0.940572
            32    0       1.646343      4.667538      4.658106    -0.846521     0.610841     0.675045
            33    0       1.603383      4.672197      7.818595    -0.620890     0.961417     0.845544
            34    0       1.563617      7.919390      1.615527     0.458427    -0.646352     0.007465
            35    0       1.619685      7.804108      4.768059    -0.672931     0.756438    -0.754921
            36    0       1.651494      7.813861      7.914779    -0.739497     0.884176    -0.418297
            37    0       4.735947      1.543942      1.494404    -0.143955     0.232222     1.027067
            38    0       4.761141      1.486032      4.720628    -1.035715     1.714584    -0.155753
            39    0       4.707228      1.566584      7.854043    -0.388972    -0.237191    -0.093760
            40    0       4.832622      4.649393      1.524012    -1.273868     1.088063     0.933411
            41    0       4.745029      4.674871      4.733216     0.005539     0.646828    -0.316856
            42    0       4.689150      4.704932      7.868634     0.290451     0.753469    -0.205042
            43    0       4.784369      7.824785      1.589009    -0.467056     0.769596    -0.093672
            44    0       4.798469      7.926147      4.729341    -1.014306    -0.944687    -0.254317
            45    0       4.814534      7.819701      7.863380    -1.114731     1.375212     0.208555
            46    0       7.934303      1.461348      1.550406    -1.166233     1.678654     0.442932
            47    0       7.864986      1.579474      4.814430     0.084846     0.340289    -1.745102
            48    0       7.877129      1.468795      7.790897    -0.320221     1.492241     1.286850
            49    0       7.922603      4.638129      1.585050    -0.749166     0.847833     0.277266
            50    0       7.935144      4.763126      4.784899    -1.080248    -0.217140    -0.724335
            51    0       7.922178      4.655404      7.941957    -0.946652     0.774814    -0.789478
            52    0       7.976998      7.816932      1.466252    -1.638391     0.423755     1.674924
            53    0       7.879180      7.837240      4.733594     0.184918     0.575881    -0.641591
            54    0       8.002287      7.846993      7.846521    -1.320554     0.015613     0.180239
 Energy
       -582.418051190000
 Stress:  xx          yy          zz          yz          xz          xy
   37.730148   38.323994   38.818114   -0.194852    0.223577   -3.837645
END_CFG
BEGIN_CFG
 Size
     54
 SuperCell
         9.450121      0.000000      0.000000
         0.000000      9.450121      0.000000